+ 0.1 1 2 cbr 1000 ------- 2 1.0 3.0 0 0
- 0.1 1 2 cbr 1000 ------- 2 1.0 3.0 0 0
+ 0.1 3 2 cbr 1000 ------- 2 3.1 1.1 0 1
- 0.1 3 2 cbr 1000 ------- 2 3.1 1.1 0 1
+ 0.1 0 2 cbr 1000 ------- 2 0.0 3.0 0 2
- 0.1 0 2 cbr 1000 ------- 2 0.0 3.0 0 2
r 0.105 1 2 cbr 1000 ------- 2 1.0 3.0 0 0
+ 0.105 2 3 cbr 1000 ------- 2 1.0 3.0 0 0
- 0.105 2 3 cbr 1000 ------- 2 1.0 3.0 0 0
r 0.105 0 2 cbr 1000 ------- 2 0.0 3.0 0 2
+ 0.105 2 3 cbr 1000 ------- 2 0.0 3.0 0 2
r 0.106706 3 2 cbr 1000 ------- 2 3.1 1.1 0 1
+ 0.106706 2 1 cbr 1000 ------- 2 3.1 1.1 0 1
- 0.106706 2 1 cbr 1000 ------- 2 3.1 1.1 0 1
- 0.109706 2 3 cbr 1000 ------- 2 0.0 3.0 0 2
r 0.111706 2 3 cbr 1000 ------- 2 1.0 3.0 0 0
r 0.111706 2 1 cbr 1000 ------- 2 3.1 1.1 0 1
r 0.116412 2 3 cbr 1000 ------- 2 0.0 3.0 0 2


+ 2.1 1 2 cbr 1000 ------- 2 1.0 3.0 1 3
- 2.1 1 2 cbr 1000 ------- 2 1.0 3.0 1 3
+ 2.1 3 2 cbr 1000 ------- 2 3.1 1.1 1 4
- 2.1 3 2 cbr 1000 ------- 2 3.1 1.1 1 4
+ 2.1 0 2 cbr 1000 ------- 2 0.0 3.0 1 5
- 2.1 0 2 cbr 1000 ------- 2 0.0 3.0 1 5
r 2.105 1 2 cbr 1000 ------- 2 1.0 3.0 1 3
+ 2.105 2 3 cbr 1000 ------- 2 1.0 3.0 1 3
- 2.105 2 3 cbr 1000 ------- 2 1.0 3.0 1 3
r 2.105 0 2 cbr 1000 ------- 2 0.0 3.0 1 5
+ 2.105 2 3 cbr 1000 ------- 2 0.0 3.0 1 5
r 2.106706 3 2 cbr 1000 ------- 2 3.1 1.1 1 4
+ 2.106706 2 1 cbr 1000 ------- 2 3.1 1.1 1 4
- 2.106706 2 1 cbr 1000 ------- 2 3.1 1.1 1 4
- 2.109706 2 3 cbr 1000 ------- 2 0.0 3.0 1 5
r 2.111706 2 3 cbr 1000 ------- 2 1.0 3.0 1 3
r 2.111706 2 1 cbr 1000 ------- 2 3.1 1.1 1 4
r 2.116412 2 3 cbr 1000 ------- 2 0.0 3.0 1 5
+ 4.1 1 2 cbr 1000 ------- 2 1.0 3.0 2 6
- 4.1 1 2 cbr 1000 ------- 2 1.0 3.0 2 6
+ 4.1 3 2 cbr 1000 ------- 2 3.1 1.1 2 7
- 4.1 3 2 cbr 1000 ------- 2 3.1 1.1 2 7
+ 4.1 0 2 cbr 1000 ------- 2 0.0 3.0 2 8
- 4.1 0 2 cbr 1000 ------- 2 0.0 3.0 2 8
r 4.105 1 2 cbr 1000 ------- 2 1.0 3.0 2 6
+ 4.105 2 3 cbr 1000 ------- 2 1.0 3.0 2 6
- 4.105 2 3 cbr 1000 ------- 2 1.0 3.0 2 6
r 4.105 0 2 cbr 1000 ------- 2 0.0 3.0 2 8
+ 4.105 2 3 cbr 1000 ------- 2 0.0 3.0 2 8
r 4.106706 3 2 cbr 1000 ------- 2 3.1 1.1 2 7
+ 4.106706 2 1 cbr 1000 ------- 2 3.1 1.1 2 7
- 4.106706 2 1 cbr 1000 ------- 2 3.1 1.1 2 7
- 4.109706 2 3 cbr 1000 ------- 2 0.0 3.0 2 8
r 4.111706 2 3 cbr 1000 ------- 2 1.0 3.0 2 6
r 4.111706 2 1 cbr 1000 ------- 2 3.1 1.1 2 7
r 4.116412 2 3 cbr 1000 ------- 2 0.0 3.0 2 8
