+ 0.1 1 2 cbr 1000 ------- 2 1.0 3.0 0 0
- 0.1 1 2 cbr 1000 ------- 2 1.0 3.0 0 0
r 0.105 1 2 cbr 1000 ------- 2 1.0 3.0 0 0
+ 0.105 2 3 cbr 1000 ------- 2 1.0 3.0 0 0
- 0.105 2 3 cbr 1000 ------- 2 1.0 3.0 0 0
r 0.111706 2 3 cbr 1000 ------- 2 1.0 3.0 0 0

+ 2.1 1 2 cbr 1000 ------- 2 1.0 3.0 1 1
- 2.1 1 2 cbr 1000 ------- 2 1.0 3.0 1 1
r 2.105 1 2 cbr 1000 ------- 2 1.0 3.0 1 1
+ 2.105 2 3 cbr 1000 ------- 2 1.0 3.0 1 1
- 2.105 2 3 cbr 1000 ------- 2 1.0 3.0 1 1
r 2.111706 2 3 cbr 1000 ------- 2 1.0 3.0 1 1

+ 4.1 1 2 cbr 1000 ------- 2 1.0 3.0 2 2
- 4.1 1 2 cbr 1000 ------- 2 1.0 3.0 2 2
r 4.105 1 2 cbr 1000 ------- 2 1.0 3.0 2 2
+ 4.105 2 3 cbr 1000 ------- 2 1.0 3.0 2 2
- 4.105 2 3 cbr 1000 ------- 2 1.0 3.0 2 2
r 4.111706 2 3 cbr 1000 ------- 2 1.0 3.0 2 2
