+ 0.1 1 2 cbr 1000 ------- 2 1.0 3.0 0 0
- 0.1 1 2 cbr 1000 ------- 2 1.0 3.0 0 0

+ 0.1 3 2 cbr 1000 ------- 2 3.1 1.1 0 1
- 0.1 3 2 cbr 1000 ------- 2 3.1 1.1 0 1

r 0.105 1 2 cbr 1000 ------- 2 1.0 3.0 0 0
+ 0.105 2 3 cbr 1000 ------- 2 1.0 3.0 0 0
- 0.105 2 3 cbr 1000 ------- 2 1.0 3.0 0 0

r 0.106706 3 2 cbr 1000 ------- 2 3.1 1.1 0 1
+ 0.106706 2 1 cbr 1000 ------- 2 3.1 1.1 0 1
- 0.106706 2 1 cbr 1000 ------- 2 3.1 1.1 0 1

r 0.111706 2 3 cbr 1000 ------- 2 1.0 3.0 0 0

r 0.111706 2 1 cbr 1000 ------- 2 3.1 1.1 0 1



+ 2.1 1 2 cbr 1000 ------- 2 1.0 3.0 1 2
- 2.1 1 2 cbr 1000 ------- 2 1.0 3.0 1 2
+ 2.1 3 2 cbr 1000 ------- 2 3.1 1.1 1 3
- 2.1 3 2 cbr 1000 ------- 2 3.1 1.1 1 3
r 2.105 1 2 cbr 1000 ------- 2 1.0 3.0 1 2
+ 2.105 2 3 cbr 1000 ------- 2 1.0 3.0 1 2
- 2.105 2 3 cbr 1000 ------- 2 1.0 3.0 1 2
r 2.106706 3 2 cbr 1000 ------- 2 3.1 1.1 1 3
+ 2.106706 2 1 cbr 1000 ------- 2 3.1 1.1 1 3
- 2.106706 2 1 cbr 1000 ------- 2 3.1 1.1 1 3
r 2.111706 2 3 cbr 1000 ------- 2 1.0 3.0 1 2
r 2.111706 2 1 cbr 1000 ------- 2 3.1 1.1 1 3
+ 4.1 1 2 cbr 1000 ------- 2 1.0 3.0 2 4
- 4.1 1 2 cbr 1000 ------- 2 1.0 3.0 2 4
+ 4.1 3 2 cbr 1000 ------- 2 3.1 1.1 2 5
- 4.1 3 2 cbr 1000 ------- 2 3.1 1.1 2 5
r 4.105 1 2 cbr 1000 ------- 2 1.0 3.0 2 4
+ 4.105 2 3 cbr 1000 ------- 2 1.0 3.0 2 4
- 4.105 2 3 cbr 1000 ------- 2 1.0 3.0 2 4
r 4.106706 3 2 cbr 1000 ------- 2 3.1 1.1 2 5
+ 4.106706 2 1 cbr 1000 ------- 2 3.1 1.1 2 5
- 4.106706 2 1 cbr 1000 ------- 2 3.1 1.1 2 5
r 4.111706 2 3 cbr 1000 ------- 2 1.0 3.0 2 4
r 4.111706 2 1 cbr 1000 ------- 2 3.1 1.1 2 5
